
    8322 atoms
2 atom types

     0.000000000    91.623500357 xlo xhi
     0.000000000    79.348278893 ylo yhi
     0.000000000    35.000000000 zlo zhi
    45.811750178     0.000000000     0.000000000 xy xz yz

 Masses

1    12.010700226
2    12.010700226

 Atoms

1 2 2 0.0 47.232014 79.329209 19.175000 0 0 0
2 2 2 0.0 48.652277 79.310140 19.175000 0 0 0
3 2 2 0.0 3.567173 1.182310 19.175000 0 0 0
4 2 2 0.0 4.987436 1.163241 19.175000 0 0 0
5 2 2 0.0 5.714083 2.383690 19.175000 0 0 0
6 2 2 0.0 7.134346 2.364621 19.175000 0 0 0
7 2 2 0.0 7.860992 3.585070 19.175000 0 0 0
8 2 2 0.0 9.281256 3.566001 19.175000 0 0 0
9 2 2 0.0 10.007902 4.786450 19.175000 0 0 0
10 2 2 0.0 11.428166 4.767380 19.175000 0 0 0
11 2 2 0.0 12.154812 5.987830 19.175000 0 0 0
12 2 2 0.0 13.575075 5.968760 19.175000 0 0 0
13 2 2 0.0 14.301722 7.189210 19.175000 0 0 0
14 2 2 0.0 15.721985 7.170140 19.175000 0 0 0
15 2 2 0.0 16.448631 8.390589 19.175000 0 0 0
16 2 2 0.0 17.868895 8.371520 19.175000 0 0 0
17 2 2 0.0 18.595541 9.591969 19.175000 0 0 0
18 2 2 0.0 20.015804 9.572900 19.175000 0 0 0
19 2 2 0.0 20.742451 10.793349 19.175000 0 0 0
20 2 2 0.0 22.162714 10.774280 19.175000 0 0 0
21 2 2 0.0 22.889360 11.994729 19.175000 0 0 0
22 2 2 0.0 24.309624 11.975659 19.175000 0 0 0
23 2 2 0.0 25.036270 13.196109 19.175000 0 0 0
24 2 2 0.0 26.456533 13.177039 19.175000 0 0 0
25 2 2 0.0 27.183180 14.397489 19.175000 0 0 0
26 2 2 0.0 28.603443 14.378419 19.175000 0 0 0
27 2 2 0.0 29.330089 15.598869 19.175000 0 0 0
28 2 2 0.0 30.750353 15.579799 19.175000 0 0 0
29 2 2 0.0 31.476999 16.800248 19.175000 0 0 0
30 2 2 0.0 32.897263 16.781179 19.175000 0 0 0
31 2 2 0.0 33.623909 18.001628 19.175000 0 0 0
32 2 2 0.0 35.044172 17.982559 19.175000 0 0 0
33 2 2 0.0 35.770819 19.203008 19.175000 0 0 0
34 2 2 0.0 37.191082 19.183939 19.175000 0 0 0
35 2 2 0.0 37.917728 20.404388 19.175000 0 0 0
36 2 2 0.0 39.337992 20.385318 19.175000 0 0 0
37 2 2 0.0 40.064638 21.605768 19.175000 0 0 0
38 2 2 0.0 41.484901 21.586698 19.175000 0 0 0
39 2 2 0.0 42.211548 22.807148 19.175000 0 0 0
40 2 2 0.0 43.631811 22.788078 19.175000 0 0 0
41 2 2 0.0 44.358457 24.008528 19.175000 0 0 0
42 2 2 0.0 45.778721 23.989458 19.175000 0 0 0
43 2 2 0.0 46.505367 25.209907 19.175000 0 0 0
44 2 2 0.0 47.925630 25.190838 19.175000 0 0 0
45 2 2 0.0 48.652277 26.411287 19.175000 0 0 0
46 2 2 0.0 50.072540 26.392218 19.175000 0 0 0
47 2 2 0.0 50.799187 27.612667 19.175000 0 0 0
48 2 2 0.0 52.219450 27.593598 19.175000 0 0 0
49 2 2 0.0 52.946096 28.814047 19.175000 0 0 0
50 2 2 0.0 54.366360 28.794977 19.175000 0 0 0
51 2 2 0.0 55.093006 30.015427 19.175000 0 0 0
52 2 2 0.0 56.513269 29.996357 19.175000 0 0 0
53 2 2 0.0 57.239916 31.216807 19.175000 0 0 0
54 2 2 0.0 58.660179 31.197737 19.175000 0 0 0
55 2 2 0.0 59.386825 32.418187 19.175000 0 0 0
56 2 2 0.0 60.807089 32.399117 19.175000 0 0 0
57 2 2 0.0 61.533735 33.619566 19.175000 0 0 0
58 2 2 0.0 62.953998 33.600497 19.175000 0 0 0
59 2 2 0.0 63.680645 34.820946 19.175000 0 0 0
60 2 2 0.0 65.100908 34.801877 19.175000 0 0 0
61 2 2 0.0 65.827554 36.022326 19.175000 0 0 0
62 2 2 0.0 67.247818 36.003257 19.175000 0 0 0
63 2 2 0.0 67.974464 37.223706 19.175000 0 0 0
64 2 2 0.0 69.394728 37.204636 19.175000 0 0 0
65 2 2 0.0 70.121374 38.425086 19.175000 0 0 0
66 2 2 0.0 71.541637 38.406016 19.175000 0 0 0
67 2 2 0.0 72.268284 39.626466 19.175000 0 0 0
68 2 2 0.0 73.688547 39.607396 19.175000 0 0 0
69 2 2 0.0 74.415193 40.827845 19.175000 0 0 0
70 2 2 0.0 75.835457 40.808776 19.175000 0 0 0
71 2 2 0.0 76.562103 42.029225 19.175000 0 0 0
72 2 2 0.0 77.982366 42.010156 19.175000 0 0 0
73 2 2 0.0 78.709013 43.230605 19.175000 0 0 0
74 2 2 0.0 80.129276 43.211536 19.175000 0 0 0
75 2 2 0.0 80.855922 44.431985 19.175000 0 0 0
76 2 2 0.0 82.276186 44.412916 19.175000 0 0 0
77 2 2 0.0 83.002832 45.633365 19.175000 0 0 0
78 2 2 0.0 84.423096 45.614295 19.175000 0 0 0
79 2 2 0.0 85.149742 46.834745 19.175000 0 0 0
80 2 2 0.0 86.570005 46.815675 19.175000 0 0 0
81 2 2 0.0 87.296652 48.036125 19.175000 0 0 0
82 2 2 0.0 88.716915 48.017055 19.175000 0 0 0
83 2 2 0.0 89.443561 49.237505 19.175000 0 0 0
84 2 2 0.0 90.863825 49.218435 19.175000 0 0 0
85 2 2 0.0 91.590471 50.438884 19.175000 0 0 0
86 2 2 0.0 93.010734 50.419815 19.175000 0 0 0
87 2 2 0.0 93.737381 51.640264 19.175000 0 0 0
88 2 2 0.0 95.157644 51.621195 19.175000 0 0 0
89 2 2 0.0 95.884290 52.841644 19.175000 0 0 0
90 2 2 0.0 97.304554 52.822574 19.175000 0 0 0
91 2 2 0.0 98.031200 54.043024 19.175000 0 0 0
92 2 2 0.0 99.451463 54.023954 19.175000 0 0 0
93 2 2 0.0 100.178110 55.244404 19.175000 0 0 0
94 2 2 0.0 101.598373 55.225334 19.175000 0 0 0
95 2 2 0.0 102.325020 56.445784 19.175000 0 0 0
96 2 2 0.0 103.745283 56.426714 19.175000 0 0 0
97 2 2 0.0 104.471929 57.647163 19.175000 0 0 0
98 2 2 0.0 105.892193 57.628094 19.175000 0 0 0
99 2 2 0.0 106.618839 58.848543 19.175000 0 0 0
100 2 2 0.0 108.039102 58.829474 19.175000 0 0 0
101 2 2 0.0 108.765749 60.049923 19.175000 0 0 0
102 2 2 0.0 110.186012 60.030854 19.175000 0 0 0
103 2 2 0.0 110.912658 61.251303 19.175000 0 0 0
104 2 2 0.0 112.332922 61.232234 19.175000 0 0 0
105 2 2 0.0 113.059568 62.452683 19.175000 0 0 0
106 2 2 0.0 114.479831 62.433613 19.175000 0 0 0
107 2 2 0.0 115.206478 63.654063 19.175000 0 0 0
108 2 2 0.0 116.626741 63.634993 19.175000 0 0 0
109 2 2 0.0 117.353387 64.855443 19.175000 0 0 0
110 2 2 0.0 118.773651 64.836373 19.175000 0 0 0
111 2 2 0.0 119.500297 66.056822 19.175000 0 0 0
112 2 2 0.0 120.920560 66.037753 19.175000 0 0 0
113 2 2 0.0 121.647207 67.258202 19.175000 0 0 0
114 2 2 0.0 123.067470 67.239133 19.175000 0 0 0
115 2 2 0.0 123.794117 68.459582 19.175000 0 0 0
116 2 2 0.0 125.214380 68.440513 19.175000 0 0 0
117 2 2 0.0 125.941026 69.660962 19.175000 0 0 0
118 2 2 0.0 127.361290 69.641892 19.175000 0 0 0
119 2 2 0.0 128.087936 70.862342 19.175000 0 0 0
120 2 2 0.0 129.508199 70.843272 19.175000 0 0 0
121 2 2 0.0 130.234846 72.063722 19.175000 0 0 0
122 2 2 0.0 131.655109 72.044652 19.175000 0 0 0
123 2 2 0.0 132.381755 73.265102 19.175000 0 0 0
124 2 2 0.0 133.802019 73.246032 19.175000 0 0 0
125 2 2 0.0 134.528665 74.466481 19.175000 0 0 0
126 2 2 0.0 44.325428 74.447412 19.175000 0 0 0
127 2 2 0.0 45.052074 75.667861 19.175000 0 0 0
128 2 2 0.0 46.472338 75.648792 19.175000 0 0 0
129 2 2 0.0 47.198984 76.869241 19.175000 0 0 0
130 2 2 0.0 48.619247 76.850172 19.175000 0 0 0
131 2 2 0.0 49.345894 78.070621 19.175000 0 0 0
132 2 2 0.0 50.766157 78.051551 19.175000 0 0 0
133 2 2 0.0 51.492804 79.272001 19.175000 0 0 0
134 2 2 0.0 52.913067 79.252931 19.175000 0 0 0
135 2 2 0.0 7.827963 1.125102 19.175000 0 0 0
136 2 2 0.0 9.248226 1.106032 19.175000 0 0 0
137 2 2 0.0 9.974873 2.326482 19.175000 0 0 0
138 2 2 0.0 11.395136 2.307412 19.175000 0 0 0
139 2 2 0.0 12.121783 3.527861 19.175000 0 0 0
140 2 2 0.0 13.542046 3.508792 19.175000 0 0 0
141 2 2 0.0 14.268692 4.729241 19.175000 0 0 0
142 2 2 0.0 15.688956 4.710172 19.175000 0 0 0
143 2 2 0.0 16.415602 5.930621 19.175000 0 0 0
144 2 2 0.0 17.835865 5.911552 19.175000 0 0 0
145 2 2 0.0 18.562512 7.132001 19.175000 0 0 0
146 2 2 0.0 19.982775 7.112932 19.175000 0 0 0
147 2 2 0.0 20.709421 8.333381 19.175000 0 0 0
148 2 2 0.0 22.129685 8.314311 19.175000 0 0 0
149 2 2 0.0 22.856331 9.534761 19.175000 0 0 0
150 2 2 0.0 24.276594 9.515691 19.175000 0 0 0
151 2 2 0.0 25.003241 10.736141 19.175000 0 0 0
152 2 2 0.0 26.423504 10.717071 19.175000 0 0 0
153 2 2 0.0 27.150150 11.937520 19.175000 0 0 0
154 2 2 0.0 28.570414 11.918451 19.175000 0 0 0
155 2 2 0.0 29.297060 13.138900 19.175000 0 0 0
156 2 2 0.0 30.717324 13.119831 19.175000 0 0 0
157 2 2 0.0 31.443970 14.340280 19.175000 0 0 0
158 2 2 0.0 32.864233 14.321211 19.175000 0 0 0
159 2 2 0.0 33.590880 15.541660 19.175000 0 0 0
160 2 2 0.0 35.011143 15.522590 19.175000 0 0 0
161 2 2 0.0 35.737789 16.743040 19.175000 0 0 0
162 2 2 0.0 37.158053 16.723970 19.175000 0 0 0
163 2 2 0.0 37.884699 17.944420 19.175000 0 0 0
164 2 2 0.0 39.304962 17.925350 19.175000 0 0 0
165 2 2 0.0 40.031609 19.145800 19.175000 0 0 0
166 2 2 0.0 41.451872 19.126730 19.175000 0 0 0
167 2 2 0.0 42.178518 20.347179 19.175000 0 0 0
168 2 2 0.0 43.598782 20.328110 19.175000 0 0 0
169 2 2 0.0 44.325428 21.548559 19.175000 0 0 0
170 2 2 0.0 45.745691 21.529490 19.175000 0 0 0
171 2 2 0.0 46.472338 22.749939 19.175000 0 0 0
172 2 2 0.0 47.892601 22.730870 19.175000 0 0 0
173 2 2 0.0 48.619247 23.951319 19.175000 0 0 0
174 2 2 0.0 50.039511 23.932249 19.175000 0 0 0
175 2 2 0.0 50.766157 25.152699 19.175000 0 0 0
176 2 2 0.0 52.186421 25.133629 19.175000 0 0 0
177 2 2 0.0 52.913067 26.354079 19.175000 0 0 0
178 2 2 0.0 54.333330 26.335009 19.175000 0 0 0
179 2 2 0.0 55.059977 27.555459 19.175000 0 0 0
180 2 2 0.0 56.480240 27.536389 19.175000 0 0 0
181 2 2 0.0 57.206886 28.756838 19.175000 0 0 0
182 2 2 0.0 58.627150 28.737769 19.175000 0 0 0
183 2 2 0.0 59.353796 29.958218 19.175000 0 0 0
184 2 2 0.0 60.774059 29.939149 19.175000 0 0 0
185 2 2 0.0 61.500706 31.159598 19.175000 0 0 0
186 2 2 0.0 62.920969 31.140529 19.175000 0 0 0
187 2 2 0.0 63.647615 32.360978 19.175000 0 0 0
188 2 2 0.0 65.067879 32.341908 19.175000 0 0 0
189 2 2 0.0 65.794525 33.562358 19.175000 0 0 0
190 2 2 0.0 67.214788 33.543288 19.175000 0 0 0
191 2 2 0.0 67.941435 34.763738 19.175000 0 0 0
192 2 2 0.0 69.361698 34.744668 19.175000 0 0 0
193 2 2 0.0 70.088345 35.965118 19.175000 0 0 0
194 2 2 0.0 71.508608 35.946048 19.175000 0 0 0
195 2 2 0.0 72.235254 37.166497 19.175000 0 0 0
196 2 2 0.0 73.655518 37.147428 19.175000 0 0 0
197 2 2 0.0 74.382164 38.367877 19.175000 0 0 0
198 2 2 0.0 75.802427 38.348808 19.175000 0 0 0
199 2 2 0.0 76.529074 39.569257 19.175000 0 0 0
200 2 2 0.0 77.949337 39.550188 19.175000 0 0 0
201 2 2 0.0 78.675983 40.770637 19.175000 0 0 0
202 2 2 0.0 80.096247 40.751567 19.175000 0 0 0
203 2 2 0.0 80.822893 41.972017 19.175000 0 0 0
204 2 2 0.0 82.243156 41.952947 19.175000 0 0 0
205 2 2 0.0 82.969803 43.173397 19.175000 0 0 0
206 2 2 0.0 84.390066 43.154327 19.175000 0 0 0
207 2 2 0.0 85.116712 44.374776 19.175000 0 0 0
208 2 2 0.0 86.536976 44.355707 19.175000 0 0 0
209 2 2 0.0 87.263622 45.576156 19.175000 0 0 0
210 2 2 0.0 88.683886 45.557087 19.175000 0 0 0
211 2 2 0.0 89.410532 46.777536 19.175000 0 0 0
212 2 2 0.0 90.830795 46.758467 19.175000 0 0 0
213 2 2 0.0 91.557442 47.978916 19.175000 0 0 0
214 2 2 0.0 92.977705 47.959847 19.175000 0 0 0
215 2 2 0.0 93.704351 49.180296 19.175000 0 0 0
216 2 2 0.0 95.124615 49.161226 19.175000 0 0 0
217 2 2 0.0 95.851261 50.381676 19.175000 0 0 0
218 2 2 0.0 97.271524 50.362606 19.175000 0 0 0
219 2 2 0.0 97.998171 51.583056 19.175000 0 0 0
220 2 2 0.0 99.418434 51.563986 19.175000 0 0 0
221 2 2 0.0 100.145080 52.784435 19.175000 0 0 0
222 2 2 0.0 101.565344 52.765366 19.175000 0 0 0
223 2 2 0.0 102.291990 53.985815 19.175000 0 0 0
224 2 2 0.0 103.712254 53.966746 19.175000 0 0 0
225 2 2 0.0 104.438900 55.187195 19.175000 0 0 0
226 2 2 0.0 105.859163 55.168126 19.175000 0 0 0
227 2 2 0.0 106.585810 56.388575 19.175000 0 0 0
228 2 2 0.0 108.006073 56.369505 19.175000 0 0 0
229 2 2 0.0 108.732719 57.589955 19.175000 0 0 0
230 2 2 0.0 110.152983 57.570885 19.175000 0 0 0
231 2 2 0.0 110.879629 58.791335 19.175000 0 0 0
232 2 2 0.0 112.299892 58.772265 19.175000 0 0 0
233 2 2 0.0 113.026539 59.992715 19.175000 0 0 0
234 2 2 0.0 114.446802 59.973645 19.175000 0 0 0
235 2 2 0.0 115.173448 61.194094 19.175000 0 0 0
236 2 2 0.0 116.593712 61.175025 19.175000 0 0 0
237 2 2 0.0 117.320358 62.395474 19.175000 0 0 0
238 2 2 0.0 118.740621 62.376405 19.175000 0 0 0
239 2 2 0.0 119.467268 63.596854 19.175000 0 0 0
240 2 2 0.0 120.887531 63.577785 19.175000 0 0 0
241 2 2 0.0 121.614177 64.798234 19.175000 0 0 0
242 2 2 0.0 123.034441 64.779164 19.175000 0 0 0
243 2 2 0.0 123.761087 65.999614 19.175000 0 0 0
244 2 2 0.0 125.181351 65.980544 19.175000 0 0 0
245 2 2 0.0 125.907997 67.200994 19.175000 0 0 0
246 2 2 0.0 127.328260 67.181924 19.175000 0 0 0
247 2 2 0.0 128.054907 68.402374 19.175000 0 0 0
248 2 2 0.0 129.475170 68.383304 19.175000 0 0 0
249 2 2 0.0 130.201816 69.603753 19.175000 0 0 0
250 2 2 0.0 131.622080 69.584684 19.175000 0 0 0
251 2 2 0.0 132.348726 70.805133 19.175000 0 0 0
252 2 2 0.0 42.145489 70.786064 19.175000 0 0 0
253 2 2 0.0 42.872135 72.006513 19.175000 0 0 0
254 2 2 0.0 44.292399 71.987444 19.175000 0 0 0
255 2 2 0.0 45.019045 73.207893 19.175000 0 0 0
256 2 2 0.0 46.439308 73.188823 19.175000 0 0 0
257 2 2 0.0 47.165955 74.409273 19.175000 0 0 0
258 2 2 0.0 48.586218 74.390203 19.175000 0 0 0
259 2 2 0.0 49.312864 75.610653 19.175000 0 0 0
260 2 2 0.0 50.733128 75.591583 19.175000 0 0 0
261 2 2 0.0 51.459774 76.812033 19.175000 0 0 0
262 2 2 0.0 52.880038 76.792963 19.175000 0 0 0
263 2 2 0.0 53.606684 78.013412 19.175000 0 0 0
264 2 2 0.0 55.026947 77.994343 19.175000 0 0 0
265 2 2 0.0 55.753594 79.214792 19.175000 0 0 0
266 2 2 0.0 57.173857 79.195723 19.175000 0 0 0
267 2 2 0.0 12.088753 1.067893 19.175000 0 0 0
268 2 2 0.0 13.509016 1.048824 19.175000 0 0 0
269 2 2 0.0 14.235663 2.269273 19.175000 0 0 0
270 2 2 0.0 15.655926 2.250204 19.175000 0 0 0
271 2 2 0.0 16.382572 3.470653 19.175000 0 0 0
272 2 2 0.0 17.802836 3.451583 19.175000 0 0 0
273 2 2 0.0 18.529482 4.672033 19.175000 0 0 0
274 2 2 0.0 19.949746 4.652963 19.175000 0 0 0
275 2 2 0.0 20.676392 5.873413 19.175000 0 0 0
276 2 2 0.0 22.096655 5.854343 19.175000 0 0 0
277 2 2 0.0 22.823302 7.074792 19.175000 0 0 0
278 2 2 0.0 24.243565 7.055723 19.175000 0 0 0
279 2 2 0.0 24.970211 8.276172 19.175000 0 0 0
280 2 2 0.0 26.390475 8.257103 19.175000 0 0 0
281 2 2 0.0 27.117121 9.477552 19.175000 0 0 0
282 2 2 0.0 28.537384 9.458483 19.175000 0 0 0
283 2 2 0.0 29.264031 10.678932 19.175000 0 0 0
284 2 2 0.0 30.684294 10.659863 19.175000 0 0 0
285 2 2 0.0 31.410940 11.880312 19.175000 0 0 0
286 2 2 0.0 32.831204 11.861242 19.175000 0 0 0
287 2 2 0.0 33.557850 13.081692 19.175000 0 0 0
288 2 2 0.0 34.978113 13.062622 19.175000 0 0 0
289 2 2 0.0 35.704760 14.283072 19.175000 0 0 0
290 2 2 0.0 37.125023 14.264002 19.175000 0 0 0
291 2 2 0.0 37.851670 15.484451 19.175000 0 0 0
292 2 2 0.0 39.271933 15.465382 19.175000 0 0 0
293 2 2 0.0 39.998579 16.685831 19.175000 0 0 0
294 2 2 0.0 41.418843 16.666762 19.175000 0 0 0
295 2 2 0.0 42.145489 17.887211 19.175000 0 0 0
296 2 2 0.0 43.565752 17.868142 19.175000 0 0 0
297 2 2 0.0 44.292399 19.088591 19.175000 0 0 0
298 2 2 0.0 45.712662 19.069522 19.175000 0 0 0
299 2 2 0.0 46.439308 20.289971 19.175000 0 0 0
300 2 2 0.0 47.859572 20.270901 19.175000 0 0 0
301 2 2 0.0 48.586218 21.491351 19.175000 0 0 0
302 2 2 0.0 50.006481 21.472281 19.175000 0 0 0
303 2 2 0.0 50.733128 22.692731 19.175000 0 0 0
304 2 2 0.0 52.153391 22.673661 19.175000 0 0 0
305 2 2 0.0 52.880038 23.894110 19.175000 0 0 0
306 2 2 0.0 54.300301 23.875041 19.175000 0 0 0
307 2 2 0.0 55.026947 25.095490 19.175000 0 0 0
308 2 2 0.0 56.447211 25.076421 19.175000 0 0 0
309 2 2 0.0 57.173857 26.296870 19.175000 0 0 0
310 2 2 0.0 58.594120 26.277801 19.175000 0 0 0
311 2 2 0.0 59.320767 27.498250 19.175000 0 0 0
312 2 2 0.0 60.741030 27.479180 19.175000 0 0 0
313 2 2 0.0 61.467676 28.699630 19.175000 0 0 0
314 2 2 0.0 62.887940 28.680560 19.175000 0 0 0
315 2 2 0.0 63.614586 29.901010 19.175000 0 0 0
316 2 2 0.0 65.034849 29.881940 19.175000 0 0 0
317 2 2 0.0 65.761496 31.102390 19.175000 0 0 0
318 2 2 0.0 67.181759 31.083320 19.175000 0 0 0
319 2 2 0.0 67.908405 32.303769 19.175000 0 0 0
320 2 2 0.0 69.328669 32.284700 19.175000 0 0 0
321 2 2 0.0 70.055315 33.505149 19.175000 0 0 0
322 2 2 0.0 71.475579 33.486080 19.175000 0 0 0
323 2 2 0.0 72.202225 34.706529 19.175000 0 0 0
324 2 2 0.0 73.622488 34.687460 19.175000 0 0 0
325 2 2 0.0 74.349135 35.907909 19.175000 0 0 0
326 2 2 0.0 75.769398 35.888839 19.175000 0 0 0
327 2 2 0.0 76.496044 37.109289 19.175000 0 0 0
328 2 2 0.0 77.916308 37.090219 19.175000 0 0 0
329 2 2 0.0 78.642954 38.310669 19.175000 0 0 0
330 2 2 0.0 80.063217 38.291599 19.175000 0 0 0
331 2 2 0.0 80.789864 39.512049 19.175000 0 0 0
332 2 2 0.0 82.210127 39.492979 19.175000 0 0 0
333 2 2 0.0 82.936773 40.713428 19.175000 0 0 0
334 2 2 0.0 84.357037 40.694359 19.175000 0 0 0
335 2 2 0.0 85.083683 41.914808 19.175000 0 0 0
336 2 2 0.0 86.503946 41.895739 19.175000 0 0 0
337 2 2 0.0 87.230593 43.116188 19.175000 0 0 0
338 2 2 0.0 88.650856 43.097119 19.175000 0 0 0
339 2 2 0.0 89.377503 44.317568 19.175000 0 0 0
340 2 2 0.0 90.797766 44.298498 19.175000 0 0 0
341 2 2 0.0 91.524412 45.518948 19.175000 0 0 0
342 2 2 0.0 92.944676 45.499878 19.175000 0 0 0
343 2 2 0.0 93.671322 46.720328 19.175000 0 0 0
344 2 2 0.0 95.091585 46.701258 19.175000 0 0 0
345 2 2 0.0 95.818232 47.921707 19.175000 0 0 0
346 2 2 0.0 97.238495 47.902638 19.175000 0 0 0
347 2 2 0.0 97.965141 49.123087 19.175000 0 0 0
348 2 2 0.0 99.385405 49.104018 19.175000 0 0 0
349 2 2 0.0 100.112051 50.324467 19.175000 0 0 0
350 2 2 0.0 101.532314 50.305398 19.175000 0 0 0
351 2 2 0.0 102.258961 51.525847 19.175000 0 0 0
352 2 2 0.0 103.679224 51.506778 19.175000 0 0 0
353 2 2 0.0 104.405870 52.727227 19.175000 0 0 0
354 2 2 0.0 105.826134 52.708157 19.175000 0 0 0
355 2 2 0.0 106.552780 53.928607 19.175000 0 0 0
356 2 2 0.0 107.973043 53.909537 19.175000 0 0 0
357 2 2 0.0 108.699690 55.129987 19.175000 0 0 0
358 2 2 0.0 110.119953 55.110917 19.175000 0 0 0
359 2 2 0.0 110.846600 56.331366 19.175000 0 0 0
360 2 2 0.0 112.266863 56.312297 19.175000 0 0 0
361 2 2 0.0 112.993509 57.532746 19.175000 0 0 0
362 2 2 0.0 114.413773 57.513677 19.175000 0 0 0
363 2 2 0.0 115.140419 58.734126 19.175000 0 0 0
364 2 2 0.0 116.560682 58.715057 19.175000 0 0 0
365 2 2 0.0 117.287329 59.935506 19.175000 0 0 0
366 2 2 0.0 118.707592 59.916436 19.175000 0 0 0
367 2 2 0.0 119.434238 61.136886 19.175000 0 0 0
368 2 2 0.0 120.854502 61.117816 19.175000 0 0 0
369 2 2 0.0 121.581148 62.338266 19.175000 0 0 0
370 2 2 0.0 123.001411 62.319196 19.175000 0 0 0
371 2 2 0.0 123.728058 63.539646 19.175000 0 0 0
372 2 2 0.0 125.148321 63.520576 19.175000 0 0 0
373 2 2 0.0 125.874967 64.741025 19.175000 0 0 0
374 2 2 0.0 127.295231 64.721956 19.175000 0 0 0
375 2 2 0.0 128.021877 65.942405 19.175000 0 0 0
376 2 2 0.0 129.442141 65.923336 19.175000 0 0 0
377 2 2 0.0 130.168787 67.143785 19.175000 0 0 0
378 2 2 0.0 39.965550 67.124716 19.175000 0 0 0
379 2 2 0.0 40.692196 68.345165 19.175000 0 0 0
380 2 2 0.0 42.112460 68.326095 19.175000 0 0 0
381 2 2 0.0 42.839106 69.546545 19.175000 0 0 0
382 2 2 0.0 44.259369 69.527475 19.175000 0 0 0
383 2 2 0.0 44.986016 70.747925 19.175000 0 0 0
384 2 2 0.0 46.406279 70.728855 19.175000 0 0 0
385 2 2 0.0 47.132925 71.949305 19.175000 0 0 0
386 2 2 0.0 48.553189 71.930235 19.175000 0 0 0
387 2 2 0.0 49.279835 73.150684 19.175000 0 0 0
388 2 2 0.0 50.700098 73.131615 19.175000 0 0 0
389 2 2 0.0 51.426745 74.352064 19.175000 0 0 0
390 2 2 0.0 52.847008 74.332995 19.175000 0 0 0
391 2 2 0.0 53.573655 75.553444 19.175000 0 0 0
392 2 2 0.0 54.993918 75.534375 19.175000 0 0 0
393 2 2 0.0 55.720564 76.754824 19.175000 0 0 0
394 2 2 0.0 57.140828 76.735754 19.175000 0 0 0
395 2 2 0.0 57.867474 77.956204 19.175000 0 0 0
396 2 2 0.0 59.287737 77.937134 19.175000 0 0 0
397 2 2 0.0 60.014384 79.157584 19.175000 0 0 0
398 2 2 0.0 61.434647 79.138514 19.175000 0 0 0
399 2 2 0.0 16.349543 1.010685 19.175000 0 0 0
400 2 2 0.0 17.769807 0.991615 19.175000 0 0 0
401 2 2 0.0 18.496453 2.212064 19.175000 0 0 0
402 2 2 0.0 19.916716 2.192995 19.175000 0 0 0
403 2 2 0.0 20.643363 3.413444 19.175000 0 0 0
404 2 2 0.0 22.063626 3.394375 19.175000 0 0 0
405 2 2 0.0 22.790272 4.614824 19.175000 0 0 0
406 2 2 0.0 24.210536 4.595755 19.175000 0 0 0
407 2 2 0.0 24.937182 5.816204 19.175000 0 0 0
408 2 2 0.0 26.357445 5.797135 19.175000 0 0 0
409 2 2 0.0 27.084092 7.017584 19.175000 0 0 0
410 2 2 0.0 28.504355 6.998514 19.175000 0 0 0
411 2 2 0.0 29.231001 8.218964 19.175000 0 0 0
412 2 2 0.0 30.651265 8.199894 19.175000 0 0 0
413 2 2 0.0 31.377911 9.420344 19.175000 0 0 0
414 2 2 0.0 32.798174 9.401274 19.175000 0 0 0
415 2 2 0.0 33.524821 10.621723 19.175000 0 0 0
416 2 2 0.0 34.945084 10.602654 19.175000 0 0 0
417 2 2 0.0 35.671730 11.823103 19.175000 0 0 0
418 2 2 0.0 37.091994 11.804034 19.175000 0 0 0
419 2 2 0.0 37.818640 13.024483 19.175000 0 0 0
420 2 2 0.0 39.238904 13.005414 19.175000 0 0 0
421 2 2 0.0 39.965550 14.225863 19.175000 0 0 0
422 2 2 0.0 41.385813 14.206793 19.175000 0 0 0
423 2 2 0.0 42.112460 15.427243 19.175000 0 0 0
424 2 2 0.0 43.532723 15.408173 19.175000 0 0 0
425 2 2 0.0 44.259369 16.628623 19.175000 0 0 0
426 2 2 0.0 45.679633 16.609553 19.175000 0 0 0
427 2 2 0.0 46.406279 17.830003 19.175000 0 0 0
428 2 2 0.0 47.826542 17.810933 19.175000 0 0 0
429 2 2 0.0 48.553189 19.031382 19.175000 0 0 0
430 2 2 0.0 49.973452 19.012313 19.175000 0 0 0
431 2 2 0.0 50.700098 20.232762 19.175000 0 0 0
432 2 2 0.0 52.120362 20.213693 19.175000 0 0 0
433 2 2 0.0 52.847008 21.434142 19.175000 0 0 0
434 2 2 0.0 54.267271 21.415073 19.175000 0 0 0
435 2 2 0.0 54.993918 22.635522 19.175000 0 0 0
436 2 2 0.0 56.414181 22.616453 19.175000 0 0 0
437 2 2 0.0 57.140828 23.836902 19.175000 0 0 0
438 2 2 0.0 58.561091 23.817832 19.175000 0 0 0
439 2 2 0.0 59.287737 25.038282 19.175000 0 0 0
440 2 2 0.0 60.708001 25.019212 19.175000 0 0 0
441 2 2 0.0 61.434647 26.239662 19.175000 0 0 0
442 2 2 0.0 62.854910 26.220592 19.175000 0 0 0
443 2 2 0.0 63.581557 27.441041 19.175000 0 0 0
444 2 2 0.0 65.001820 27.421972 19.175000 0 0 0
445 2 2 0.0 65.728466 28.642421 19.175000 0 0 0
446 2 2 0.0 67.148730 28.623352 19.175000 0 0 0
447 2 2 0.0 67.875376 29.843801 19.175000 0 0 0
448 2 2 0.0 69.295639 29.824732 19.175000 0 0 0
449 2 2 0.0 70.022286 31.045181 19.175000 0 0 0
450 2 2 0.0 71.442549 31.026111 19.175000 0 0 0
451 2 2 0.0 72.169195 32.246561 19.175000 0 0 0
452 2 2 0.0 73.589459 32.227491 19.175000 0 0 0
453 2 2 0.0 74.316105 33.447941 19.175000 0 0 0
454 2 2 0.0 75.736368 33.428871 19.175000 0 0 0
455 2 2 0.0 76.463015 34.649320 19.175000 0 0 0
456 2 2 0.0 77.883278 34.630251 19.175000 0 0 0
457 2 2 0.0 78.609925 35.850700 19.175000 0 0 0
458 2 2 0.0 80.030188 35.831631 19.175000 0 0 0
459 2 2 0.0 80.756834 37.052080 19.175000 0 0 0
460 2 2 0.0 82.177098 37.033011 19.175000 0 0 0
461 2 2 0.0 82.903744 38.253460 19.175000 0 0 0
462 2 2 0.0 84.324007 38.234391 19.175000 0 0 0
463 2 2 0.0 85.050654 39.454840 19.175000 0 0 0
464 2 2 0.0 86.470917 39.435770 19.175000 0 0 0
465 2 2 0.0 87.197563 40.656220 19.175000 0 0 0
466 2 2 0.0 88.617827 40.637150 19.175000 0 0 0
467 2 2 0.0 89.344473 41.857600 19.175000 0 0 0
468 2 2 0.0 90.764737 41.838530 19.175000 0 0 0
469 2 2 0.0 91.491383 43.058980 19.175000 0 0 0
470 2 2 0.0 92.911646 43.039910 19.175000 0 0 0
471 2 2 0.0 93.638293 44.260359 19.175000 0 0 0
472 2 2 0.0 95.058556 44.241290 19.175000 0 0 0
473 2 2 0.0 95.785202 45.461739 19.175000 0 0 0
474 2 2 0.0 97.205466 45.442670 19.175000 0 0 0
475 2 2 0.0 97.932112 46.663119 19.175000 0 0 0
476 2 2 0.0 99.352375 46.644050 19.175000 0 0 0
477 2 2 0.0 100.079022 47.864499 19.175000 0 0 0
478 2 2 0.0 101.499285 47.845429 19.175000 0 0 0
479 2 2 0.0 102.225931 49.065879 19.175000 0 0 0
480 2 2 0.0 103.646195 49.046809 19.175000 0 0 0
481 2 2 0.0 104.372841 50.267259 19.175000 0 0 0
482 2 2 0.0 105.793104 50.248189 19.175000 0 0 0
483 2 2 0.0 106.519751 51.468638 19.175000 0 0 0
484 2 2 0.0 107.940014 51.449569 19.175000 0 0 0
485 2 2 0.0 108.666660 52.670018 19.175000 0 0 0
486 2 2 0.0 110.086924 52.650949 19.175000 0 0 0
487 2 2 0.0 110.813570 53.871398 19.175000 0 0 0
488 2 2 0.0 112.233834 53.852329 19.175000 0 0 0
489 2 2 0.0 112.960480 55.072778 19.175000 0 0 0
490 2 2 0.0 114.380743 55.053709 19.175000 0 0 0
491 2 2 0.0 115.107390 56.274158 19.175000 0 0 0
492 2 2 0.0 116.527653 56.255088 19.175000 0 0 0
493 2 2 0.0 117.254299 57.475538 19.175000 0 0 0
494 2 2 0.0 118.674563 57.456468 19.175000 0 0 0
495 2 2 0.0 119.401209 58.676918 19.175000 0 0 0
496 2 2 0.0 120.821472 58.657848 19.175000 0 0 0
497 2 2 0.0 121.548119 59.878297 19.175000 0 0 0
498 2 2 0.0 122.968382 59.859228 19.175000 0 0 0
499 2 2 0.0 123.695028 61.079677 19.175000 0 0 0
500 2 2 0.0 125.115292 61.060608 19.175000 0 0 0
501 2 2 0.0 125.841938 62.281057 19.175000 0 0 0
502 2 2 0.0 127.262201 62.261988 19.175000 0 0 0
503 2 2 0.0 127.988848 63.482437 19.175000 0 0 0
504 2 2 0.0 37.785611 63.463368 19.175000 0 0 0
505 2 2 0.0 38.512257 64.683817 19.175000 0 0 0
506 2 2 0.0 39.932521 64.664747 19.175000 0 0 0
507 2 2 0.0 40.659167 65.885197 19.175000 0 0 0
508 2 2 0.0 42.079430 65.866127 19.175000 0 0 0
509 2 2 0.0 42.806077 67.086577 19.175000 0 0 0
510 2 2 0.0 44.226340 67.067507 19.175000 0 0 0
511 2 2 0.0 44.952986 68.287956 19.175000 0 0 0
512 2 2 0.0 46.373250 68.268887 19.175000 0 0 0
513 2 2 0.0 47.099896 69.489336 19.175000 0 0 0
514 2 2 0.0 48.520159 69.470267 19.175000 0 0 0
515 2 2 0.0 49.246806 70.690716 19.175000 0 0 0
516 2 2 0.0 50.667069 70.671647 19.175000 0 0 0
517 2 2 0.0 51.393715 71.892096 19.175000 0 0 0
518 2 2 0.0 52.813979 71.873026 19.175000 0 0 0
519 2 2 0.0 53.540625 73.093476 19.175000 0 0 0
520 2 2 0.0 54.960888 73.074406 19.175000 0 0 0
521 2 2 0.0 55.687535 74.294856 19.175000 0 0 0
522 2 2 0.0 57.107798 74.275786 19.175000 0 0 0
523 2 2 0.0 57.834444 75.496236 19.175000 0 0 0
524 2 2 0.0 59.254708 75.477166 19.175000 0 0 0
525 2 2 0.0 59.981354 76.697615 19.175000 0 0 0
526 2 2 0.0 61.401618 76.678546 19.175000 0 0 0
527 2 2 0.0 62.128264 77.898995 19.175000 0 0 0
528 2 2 0.0 63.548527 77.879926 19.175000 0 0 0
529 2 2 0.0 64.275174 79.100375 19.175000 0 0 0
530 2 2 0.0 65.695437 79.081306 19.175000 0 0 0
531 2 2 0.0 20.610333 0.953476 19.175000 0 0 0
532 2 2 0.0 22.030596 0.934407 19.175000 0 0 0
533 2 2 0.0 22.757243 2.154856 19.175000 0 0 0
534 2 2 0.0 24.177506 2.135786 19.175000 0 0 0
535 2 2 0.0 24.904153 3.356236 19.175000 0 0 0
536 2 2 0.0 26.324416 3.337166 19.175000 0 0 0
537 2 2 0.0 27.051062 4.557616 19.175000 0 0 0
538 2 2 0.0 28.471326 4.538546 19.175000 0 0 0
539 2 2 0.0 29.197972 5.758995 19.175000 0 0 0
540 2 2 0.0 30.618235 5.739926 19.175000 0 0 0
541 2 2 0.0 31.344882 6.960375 19.175000 0 0 0
542 2 2 0.0 32.765145 6.941306 19.175000 0 0 0
543 2 2 0.0 33.491791 8.161755 19.175000 0 0 0
544 2 2 0.0 34.912055 8.142686 19.175000 0 0 0
545 2 2 0.0 35.638701 9.363135 19.175000 0 0 0
546 2 2 0.0 37.058964 9.344066 19.175000 0 0 0
547 2 2 0.0 37.785611 10.564515 19.175000 0 0 0
548 2 2 0.0 39.205874 10.545445 19.175000 0 0 0
549 2 2 0.0 39.932521 11.765895 19.175000 0 0 0
550 2 2 0.0 41.352784 11.746825 19.175000 0 0 0
551 2 2 0.0 42.079430 12.967275 19.175000 0 0 0
552 2 2 0.0 43.499694 12.948205 19.175000 0 0 0
553 2 2 0.0 44.226340 14.168654 19.175000 0 0 0
554 2 2 0.0 45.646603 14.149585 19.175000 0 0 0
555 2 2 0.0 46.373250 15.370034 19.175000 0 0 0
556 2 2 0.0 47.793513 15.350965 19.175000 0 0 0
557 2 2 0.0 48.520159 16.571414 19.175000 0 0 0
558 2 2 0.0 49.940423 16.552345 19.175000 0 0 0
559 2 2 0.0 50.667069 17.772794 19.175000 0 0 0
560 2 2 0.0 52.087332 17.753724 19.175000 0 0 0
561 2 2 0.0 52.813979 18.974174 19.175000 0 0 0
562 2 2 0.0 54.234242 18.955104 19.175000 0 0 0
563 2 2 0.0 54.960888 20.175554 19.175000 0 0 0
564 2 2 0.0 56.381152 20.156484 19.175000 0 0 0
565 2 2 0.0 57.107798 21.376934 19.175000 0 0 0
566 2 2 0.0 58.528062 21.357864 19.175000 0 0 0
567 2 2 0.0 59.254708 22.578313 19.175000 0 0 0
568 2 2 0.0 60.674971 22.559244 19.175000 0 0 0
569 2 2 0.0 61.401618 23.779693 19.175000 0 0 0
570 2 2 0.0 62.821881 23.760624 19.175000 0 0 0
571 2 2 0.0 63.548527 24.981073 19.175000 0 0 0
572 2 2 0.0 64.968791 24.962004 19.175000 0 0 0
573 2 2 0.0 65.695437 26.182453 19.175000 0 0 0
574 2 2 0.0 67.115700 26.163384 19.175000 0 0 0
575 2 2 0.0 67.842347 27.383833 19.175000 0 0 0
576 2 2 0.0 69.262610 27.364763 19.175000 0 0 0
577 2 2 0.0 69.989256 28.585213 19.175000 0 0 0
578 2 2 0.0 71.409520 28.566143 19.175000 0 0 0
579 2 2 0.0 72.136166 29.786593 19.175000 0 0 0
580 2 2 0.0 73.556429 29.767523 19.175000 0 0 0
581 2 2 0.0 74.283076 30.987972 19.175000 0 0 0
582 2 2 0.0 75.703339 30.968903 19.175000 0 0 0
583 2 2 0.0 76.429986 32.189352 19.175000 0 0 0
584 2 2 0.0 77.850249 32.170283 19.175000 0 0 0
585 2 2 0.0 78.576895 33.390732 19.175000 0 0 0
586 2 2 0.0 79.997159 33.371663 19.175000 0 0 0
587 2 2 0.0 80.723805 34.592112 19.175000 0 0 0
588 2 2 0.0 82.144068 34.573042 19.175000 0 0 0
589 2 2 0.0 82.870715 35.793492 19.175000 0 0 0
590 2 2 0.0 84.290978 35.774422 19.175000 0 0 0
591 2 2 0.0 85.017624 36.994872 19.175000 0 0 0
592 2 2 0.0 86.437888 36.975802 19.175000 0 0 0
593 2 2 0.0 87.164534 38.196252 19.175000 0 0 0
594 2 2 0.0 88.584797 38.177182 19.175000 0 0 0
595 2 2 0.0 89.311444 39.397631 19.175000 0 0 0
596 2 2 0.0 90.731707 39.378562 19.175000 0 0 0
597 2 2 0.0 91.458353 40.599011 19.175000 0 0 0
598 2 2 0.0 92.878617 40.579942 19.175000 0 0 0
599 2 2 0.0 93.605263 41.800391 19.175000 0 0 0
600 2 2 0.0 95.025526 41.781322 19.175000 0 0 0
601 2 2 0.0 95.752173 43.001771 19.175000 0 0 0
602 2 2 0.0 97.172436 42.982701 19.175000 0 0 0
603 2 2 0.0 97.899083 44.203151 19.175000 0 0 0
604 2 2 0.0 99.319346 44.184081 19.175000 0 0 0
605 2 2 0.0 100.045992 45.404531 19.175000 0 0 0
606 2 2 0.0 101.466256 45.385461 19.175000 0 0 0
607 2 2 0.0 102.192902 46.605911 19.175000 0 0 0
608 2 2 0.0 103.613165 46.586841 19.175000 0 0 0
609 2 2 0.0 104.339812 47.807290 19.175000 0 0 0
610 2 2 0.0 105.760075 47.788221 19.175000 0 0 0
611 2 2 0.0 106.486721 49.008670 19.175000 0 0 0
612 2 2 0.0 107.906985 48.989601 19.175000 0 0 0
613 2 2 0.0 108.633631 50.210050 19.175000 0 0 0
614 2 2 0.0 110.053894 50.190981 19.175000 0 0 0
615 2 2 0.0 110.780541 51.411430 19.175000 0 0 0
616 2 2 0.0 112.200804 51.392360 19.175000 0 0 0
617 2 2 0.0 112.927451 52.612810 19.175000 0 0 0
618 2 2 0.0 114.347714 52.593740 19.175000 0 0 0
619 2 2 0.0 115.074360 53.814190 19.175000 0 0 0
620 2 2 0.0 116.494624 53.795120 19.175000 0 0 0