
    8322 atoms
2 atom types

     0.000000000    91.623500357 xlo xhi
     0.000000000    79.348278893 ylo yhi
     0.000000000    35.000000000 zlo zhi
    45.811750178     0.000000000     0.000000000 xy xz yz

 Masses

1    12.010700226
2    12.010700226

 Atoms

1 2 2 0.0 47.2311066212852 79.3188534593395 19.296128657655 0 0 0
2 2 2 0.0 48.6504333709128 79.2895891604291 19.2915923056662 0 0 0
3 2 2 0.0 3.57380014749548 1.15589004752454 19.287206773653 0 0 0
4 2 2 0.0 4.99307280904275 1.12730667902476 19.2788858978433 0 0 0
5 2 2 0.0 5.72788742552588 2.34216712590796 19.2709500019003 0 0 0
6 2 2 0.0 7.14710321928784 2.31474792531822 19.2600991069097 0 0 0
7 2 2 0.0 7.88132046378553 3.53009289711166 19.2498117301373 0 0 0
8 2 2 0.0 9.30048727965564 3.50417074745458 19.2379007713395 0 0 0
9 2 2 0.0 10.0338369502443 4.72018760522703 19.226583050314 0 0 0
10 2 2 0.0 11.4529726272294 4.69593333433541 19.2149808875514 0 0 0
11 2 2 0.0 12.185259175039 5.91275599133946 19.2037251115927 0 0 0
12 2 2 0.0 13.6043891069221 5.89019702918581 19.1933896580973 0 0 0
13 2 2 0.0 14.3354992821979 7.10789808350547 19.1829190311216 0 0 0
14 2 2 0.0 15.7546492354915 7.0869619258735 19.1743216564924 0 0 0
15 2 2 0.0 16.4845456069969 8.30555853836326 19.1649879480197 0 0 0
16 2 2 0.0 17.9037381105618 8.28611637059147 19.1582073813552 0 0 0
17 2 2 0.0 18.6324470708723 9.50558097890627 19.1500869216084 0 0 0
18 2 2 0.0 20.0517005641036 9.48747985023667 19.1449684678983 0 0 0
19 2 2 0.0 20.779298030666 10.7077515770624 19.1379796085129 0 0 0
20 2 2 0.0 22.1986272805756 10.6908337722244 19.1342770396869 0 0 0
21 2 2 0.0 22.9252237032519 11.9118290090013 19.128270130346 0 0 0
22 2 2 0.0 24.3446406224587 11.8959410521436 19.1257352086748 0 0 0
23 2 2 0.0 25.0703674501816 13.1175622209898 19.120543430465 0 0 0
24 2 2 0.0 26.4898819785958 13.1025567816462 19.1189637356823 0 0 0
25 2 2 0.0 27.214880658003 14.3246990329967 19.1144273062615 0 0 0
26 2 2 0.0 28.6345014901971 14.3104324708356 19.113631487723 0 0 0
27 2 2 0.0 29.3589151705261 15.5329886908174 19.1096083267523 0 0 0
28 2 2 0.0 30.7786501558561 15.5193172428518 19.1094583703768 0 0 0
29 2 2 0.0 31.5026177799351 16.7421820953829 19.1058291684645 0 0 0
30 2 2 0.0 32.9224739744775 16.7289591816057 19.1062116263123 0 0 0
31 2 2 0.0 33.6461262919207 17.952032096646 19.1028861801546 0 0 0
32 2 2 0.0 35.0661095196477 17.9391067134985 19.1037059881638 0 0 0
33 2 2 0.0 35.7895668264303 19.1622937904605 19.1006168696665 0 0 0
34 2 2 0.0 37.2096812328321 19.1495109127324 19.1017934327748 0 0 0
35 2 2 0.0 37.9330522176512 20.3727261095022 19.0988891952749 0 0 0
36 2 2 0.0 39.3532997469018 20.3599285956551 19.1003530279859 0 0 0
37 2 2 0.0 40.0766799696659 21.5830951971076 19.097595657551 0 0 0
38 2 2 0.0 41.497059727376 21.5701271242901 19.0992872889842 0 0 0
39 2 2 0.0 42.2205301190977 22.7931800349209 19.0966657917511 0 0 0
40 2 2 0.0 43.6410380456736 22.7798867774276 19.0985530517713 0 0 0
41 2 2 0.0 44.3646736146109 24.0027676079528 19.0960862339757 0 0 0
42 2 2 0.0 45.7853037561726 23.9889891511337 19.0981644484572 0 0 0
43 2 2 0.0 46.5091883544749 25.2116365251076 19.0958830120664 0 0 0
44 2 2 0.0 47.9299349728547 25.1972027511605 19.0981592676447 0 0 0
45 2 2 0.0 48.6541570310257 26.4195505816678 19.0960862307248 0 0 0
46 2 2 0.0 50.0750206810757 26.4043042085565 19.0985530464884 0 0 0
47 2 2 0.0 50.7996551206034 27.6262957967795 19.0966931605316 0 0 0
48 2 2 0.0 52.2206448380409 27.6101271753766 19.0993089415037 0 0 0
49 2 2 0.0 52.9457352066923 28.8317316252297 19.0976573790334 0 0 0
50 2 2 0.0 54.3668609283538 28.8145763626257 19.100356881545 0 0 0
51 2 2 0.0 55.0924203752925 30.0357879623786 19.0989127650463 0 0 0
52 2 2 0.0 56.5136920682533 30.0176073061234 19.1016327792876 0 0 0
53 2 2 0.0 57.2397073103666 31.2384404447574 19.1004058053699 0 0 0
54 2 2 0.0 58.6611303592402 31.2192180265746 19.1030847356524 0 0 0
55 2 2 0.0 59.3875556138637 32.4397100712312 19.1020737793967 0 0 0
56 2 2 0.0 60.8091278022568 32.4194720717512 19.1046163425497 0 0 0
57 2 2 0.0 61.5358971932068 33.6396760085538 19.1038020350855 0 0 0
58 2 2 0.0 62.9576070987063 33.6185037860766 19.1060674450539 0 0 0
59 2 2 0.0 63.6846431968949 34.8384821278847 19.1054260350451 0 0 0
60 2 2 0.0 65.106468826562 34.8165134116524 19.1072535315145 0 0 0
61 2 2 0.0 65.833683192468 36.0363358204176 19.1067701388669 0 0 0
62 2 2 0.0 67.2555918486089 36.0137588841929 19.1080141916846 0 0 0
63 2 2 0.0 67.9828868948263 37.2334998364138 19.1076860862469 0 0 0
64 2 2 0.0 69.404836992221 37.2105428754645 19.1082464865529 0 0 0
65 2 2 0.0 70.1321085309544 38.43028005595 19.1080796674415 0 0 0
66 2 2 0.0 71.5540533149993 38.4071962509592 19.1079201359244 0 0 0
67 2 2 0.0 72.2811937079186 39.6270093726579 19.1079243756051 0 0 0
68 2 2 0.0 73.7030862009251 39.6040584190029 19.1070771503291 0 0 0
69 2 2 0.0 74.4299883730737 40.8240277729051 19.1072625284059 0 0 0
70 2 2 0.0 75.8517865261592 40.801456041809 19.1058183994351 0 0 0
71 2 2 0.0 76.5783487184865 42.0216601913015 19.1061936308275 0 0 0
72 2 2 0.0 78.0000195922861 41.9996822442718 19.1042792057683 0 0 0
73 2 2 0.0 78.7261509058046 43.2201943388258 19.1048505450643 0 0 0
74 2 2 0.0 80.1476731697273 43.1989782041351 19.1025987892286 0 0 0
75 2 2 0.0 80.8732995692662 44.4198609518896 19.1033695742168 0 0 0
76 2 2 0.0 82.2946640541745 44.3995199459404 19.1008971086405 0 0 0
77 2 2 0.0 83.0197334318489 45.6208206048877 19.1018718354941 0 0 0
78 2 2 0.0 84.4409419659236 45.6014150261772 19.0992856000565 0 0 0
79 2 2 0.0 85.1654249164573 46.8231618498454 19.1004791889497 0 0 0
80 2 2 0.0 86.5864873934534 46.8047034238639 19.09790145941 0 0 0
81 2 2 0.0 87.3103731511189 48.0269042681161 19.0993339601275 0 0 0
82 2 2 0.0 88.7313018407049 48.0093548521278 19.0968747415388 0 0 0
83 2 2 0.0 89.4545954618777 49.2320010689915 19.098546530425 0 0 0
84 2 2 0.0 90.8754018839636 49.2152797679596 19.0962719241714 0 0 0
85 2 2 0.0 91.5981353490278 50.4383389730458 19.0981592742564 0 0 0
86 2 2 0.0 93.0188306515837 50.4223181875573 19.0960862359656 0 0 0
87 2 2 0.0 93.7410782161962 51.6457307531555 19.0981644519714 0 0 0
88 2 2 0.0 95.1616705725794 51.6302615443663 19.0962889655641 0 0 0
89 2 2 0.0 95.8835393690043 52.8539516223587 19.098546526689 0 0 0
90 2 2 0.0 97.3040288626589 52.8388840810118 19.0968747349735 0 0 0
91 2 2 0.0 98.025628671921 54.0627736036169 19.0993099210335 0 0 0
92 2 2 0.0 99.4460126633615 54.0479703431071 19.09786657862 0 0 0
93 2 2 0.0 100.167445796184 55.2719838813139 19.1004793815181 0 0 0
94 2 2 0.0 101.587722316304 55.2573144159513 19.0993038278532 0 0 0
95 2 2 0.0 102.309090299167 56.4813743224666 19.1021004392604 0 0 0
96 2 2 0.0 103.729259564407 56.4667023450516 19.101246156454 0 0 0
97 2 2 0.0 104.450669343579 57.6907250172754 19.1042476610446 0 0 0
98 2 2 0.0 105.870733873085 57.6759062171894 19.1037736018787 0 0 0
99 2 2 0.0 106.592297643841 58.8998033960386 19.1070075741785 0 0 0
100 2 2 0.0 108.012261929699 58.8846905470873 19.1069744924891 0 0 0
101 2 2 0.0 108.734096798409 60.1083702179987 19.1104798603345 0 0 0
102 2 2 0.0 110.153967061147 60.0928152857671 19.1109556729086 0 0 0
103 2 2 0.0 110.876194864989 61.3161823398699 19.1147959199002 0 0 0
104 2 2 0.0 112.295978581802 61.3000369809629 19.1158603533845 0 0 0
105 2 2 0.0 113.018725570232 62.5229942178806 19.1201366361654 0 0 0
106 2 2 0.0 114.438430954 62.5061098805955 19.1218885440661 0 0 0
107 2 2 0.0 115.161827700843 63.7285591530544 19.1267513486193 0 0 0
108 2 2 0.0 116.581463035328 63.7107872890334 19.1293211784078 0 0 0
109 2 2 0.0 117.305643202137 64.9326310842241 19.1349733224991 0 0 0
110 2 2 0.0 118.725216507616 64.9138238060488 19.1385223771237 0 0 0
111 2 2 0.0 119.45031491839 66.1349674436386 19.1452120172463 0 0 0
112 2 2 0.0 120.869834169006 66.1149796564521 19.1499175320902 0 0 0
113 2 2 0.0 121.595982102208 67.3353353123363 19.1579087524426 0 0 0
114 2 2 0.0 123.015455846024 67.3140298904262 19.163917603813 0 0 0
115 2 2 0.0 123.742772089568 68.5335234826664 19.1734290824618 0 0 0
116 2 2 0.0 125.162210305808 68.510782390436 19.1807724372884 0 0 0
117 2 2 0.0 125.890788246208 69.7293634543397 19.1918744284325 0 0 0
118 2 2 0.0 127.310203311149 69.7051085899059 19.2003480801911 0 0 0
119 2 2 0.0 128.040095859623 70.9227622980973 19.212825227214 0 0 0
120 2 2 0.0 129.459502862868 70.8969895340564 19.2218686868659 0 0 0
121 2 2 0.0 130.190707076292 72.1137489346024 19.2350958621668 0 0 0
122 2 2 0.0 131.610122079595 72.0865743956722 19.2437419476869 0 0 0
123 2 2 0.0 132.342565256574 73.3025289137779 19.2566636913108 0 0 0
124 2 2 0.0 133.762000589307 73.2742316934621 19.2636377258021 0 0 0
125 2 2 0.0 134.495533617628 74.489526462266 19.2749046613246 0 0 0
126 2 2 0.0 44.2914899790036 74.4604976456291 19.2788858800574 0 0 0
127 2 2 0.0 45.0258802331739 75.6753321401056 19.2872067563439 0 0 0
128 2 2 0.0 46.4453379352696 75.6459479853056 19.2872156667232 0 0 0
129 2 2 0.0 47.1802649710277 76.8605622573304 19.2915922967366 0 0 0
130 2 2 0.0 48.5996803937271 76.8312221908587 19.2872067597602 0 0 0
131 2 2 0.0 49.3348566687018 78.0458165433999 19.2872156733253 0 0 0
132 2 2 0.0 50.7541924143807 78.0170592446235 19.2788315724248 0 0 0
133 2 2 0.0 51.4894116533224 79.2317855851258 19.2749046745848 0 0 0
134 2 2 0.0 52.9086543102444 79.2041747334952 19.2636377358353 0 0 0
135 2 2 0.0 7.83194917262372 1.0709064550455 19.2566445335781 0 0 0
136 2 2 0.0 9.25110952282634 1.04483357852041 19.2439192677295 0 0 0
137 2 2 0.0 9.98569620288955 2.26030928496965 19.2350059065695 0 0 0
138 2 2 0.0 11.4047934915551 2.23597534168121 19.2222884626057 0 0 0
139 2 2 0.0 12.1386217305212 3.45209765564116 19.2126165109997 0 0 0
140 2 2 0.0 13.5576765520088 3.42954971638254 19.2010295960081 0 0 0
141 2 2 0.0 14.2905251946702 4.64644591211342 19.1914554370966 0 0 0
142 2 2 0.0 15.7095644657129 4.62562009689925 19.1816288415736 0 0 0
143 2 2 0.0 16.4413002052289 5.84335727323392 19.1726725675123 0 0 0
144 2 2 0.0 17.8603523739127 5.82412225724794 19.1647910935928 0 0 0
145 2 2 0.0 18.5909221922098 7.04271472605872 19.1566933452071 0 0 0
146 2 2 0.0 20.0100137371622 7.02490884309794 19.1506492358344 0 0 0
147 2 2 0.0 20.7394328071479 8.24432824088853 19.1434658048545 0 0 0
148 2 2 0.0 22.1585866577498 8.2277847806955 19.1390184271398 0 0 0
149 2 2 0.0 22.8869243788492 9.44796990261086 19.1327067269858 0 0 0
150 2 2 0.0 24.3061595790903 9.43253004940497 19.1295953689633 0 0 0
151 2 2 0.0 25.0335248089146 10.653396075991 19.1240675439545 0 0 0
152 2 2 0.0 26.4528570177663 10.6389123766278 19.1220618308408 0 0 0
153 2 2 0.0 27.1793837153087 11.860358817846 19.1172080052239 0 0 0
154 2 2 0.0 28.5988259983543 11.846690713271 19.1161138856058 0 0 0
155 2 2 0.0 29.3246598841023 13.0686090032404 19.1118149080613 0 0 0
156 2 2 0.0 30.7442233165276 13.0556147784574 19.1114640537588 0 0 0
157 2 2 0.0 31.4695104761233 14.2778953521668 19.1076090961172 0 0 0
158 2 2 0.0 32.8892041968886 14.2654267968326 19.1078559562699 0 0 0
159 2 2 0.0 33.6140835095296 15.4879642492356 19.10434979137 0 0 0
160 2 2 0.0 35.0339148122774 15.4758661588262 19.105075260288 0 0 0
161 2 2 0.0 35.7585143309069 16.6985620241158 19.1018426579379 0 0 0
162 2 2 0.0 37.1784885951495 16.686673842838 19.102953140973 0 0 0
163 2 2 0.0 37.9029242224167 17.9094378734204 19.099934515712 0 0 0
164 2 2 0.0 39.3230446717977 17.8975957837321 19.1013555918923 0 0 0
165 2 2 0.0 40.0474193388753 19.1203468735055 19.0985000092513 0 0 0
166 2 2 0.0 41.4676865910412 19.1083859716155 19.1001689875741 0 0 0
167 2 2 0.0 42.1920878567648 20.3310541647386 19.0974358950784 0 0 0
168 2 2 0.0 43.6124992866218 20.3188102669597 19.0993089454109 0 0 0
169 2 2 0.0 44.336996582147 21.5413391492258 19.0966931629503 0 0 0
170 2 2 0.0 45.7575464264677 21.5286469151962 19.0987553272426 0 0 0
171 2 2 0.0 46.4822032059213 22.750985477937 19.096288962381 0 0 0
172 2 2 0.0 47.9028843000166 22.7376737996883 19.0985465231003 0 0 0
173 2 2 0.0 48.6277685810598 23.9597676068513 19.0962719161316 0 0 0
174 2 2 0.0 50.0485742417117 23.9456692460942 19.0987263130618 0 0 0
175 2 2 0.0 50.7737623464325 25.1674616305636 19.0966657825376 0 0 0
176 2 2 0.0 52.1946924314835 25.1524443501357 19.099287279089 0 0 0
177 2 2 0.0 52.9202470267558 26.3738928446012 19.0974358872072 0 0 0
178 2 2 0.0 54.3413093755417 26.3578770419728 19.1001689794289 0 0 0
179 2 2 0.0 55.0672632814343 27.5789647261319 19.0985203275339 0 0 0
180 2 2 0.0 56.4884668509401 27.5618987419269 19.1013172087373 0 0 0
181 2 2 0.0 57.2148261238798 28.7826289807427 19.0998835924444 0 0 0
182 2 2 0.0 58.6361784160518 28.7644697303921 19.1027066467988 0 0 0
183 2 2 0.0 59.3629139649246 29.98486888284 19.1015034120868 0 0 0
184 2 2 0.0 60.7844156555152 29.9656011259813 19.1042851977881 0 0 0
185 2 2 0.0 61.5114607762722 31.1857203640076 19.1032976528221 0 0 0
186 2 2 0.0 62.9331037963969 31.1653793551192 19.1059116713201 0 0 0
187 2 2 0.0 63.6603764181405 32.3852814564067 19.1050998338208 0 0 0
188 2 2 0.0 65.082143279828 32.3639620564472 19.1073767076607 0 0 0
189 2 2 0.0 65.809557798584 33.5837134777907 19.1067059366181 0 0 0
190 2 2 0.0 67.231420659285 33.5615675445636 19.1084755049781 0 0 0
191 2 2 0.0 67.9588848980842 34.7812387057823 19.1079327067013 0 0 0
192 2 2 0.0 69.3808061194839 34.7584681932862 19.1090608495877 0 0 0
193 2 2 0.0 70.1082205410489 35.9781334382984 19.1086528895232 0 0 0
194 2 2 0.0 71.5301551207201 35.9549793280144 19.1090654786674 0 0 0
195 2 2 0.0 72.2574141993343 37.1747165899276 19.1088101161088 0 0 0
196 2 2 0.0 73.6793141234532 37.1514427379837 19.1085023478144 0 0 0
197 2 2 0.0 74.4063093502806 38.3713326711463 19.1084192679257 0 0 0
198 2 2 0.0 75.8281288954245 38.3482056207213 19.1074500042392 0 0 0
199 2 2 0.0 76.5547534691945 39.568329546535 19.107554903176 0 0 0
200 2 2 0.0 77.9764542218578 39.5455972113864 19.1060273761708 0 0 0
201 2 2 0.0 78.7026091796455 40.7660334390044 19.1063288457441 0 0 0
202 2 2 0.0 80.1241637931293 40.7439060070552 19.104363137048 0 0 0
203 2 2 0.0 80.8497653540538 41.9647243829118 19.10486267772 0 0 0
204 2 2 0.0 82.2711593997494 41.943360913809 19.1025735480066 0 0 0
205 2 2 0.0 82.9961463402929 43.1646165421775 19.1032733563747 0 0 0
206 2 2 0.0 84.4173782575623 43.144121414094 19.100778823898 0 0 0
207 2 2 0.0 85.1417159406616 44.3658487689874 19.1016985727584 0 0 0
208 2 2 0.0 86.5627946566069 44.3462702756953 19.0991490456482 0 0 0
209 2 2 0.0 87.2864702750764 45.5684802019196 19.1003227780478 0 0 0
210 2 2 0.0 88.7074093610139 45.5497993352167 19.097866586164 0 0 0
211 2 2 0.0 89.4304213534974 46.7724863250556 19.0993099284107 0 0 0
212 2 2 0.0 90.8512336096003 46.7546344545342 19.0970393607995 0 0 0
213 2 2 0.0 91.5735951756419 47.9777767931129 19.0987263218808 0 0 0
214 2 2 0.0 92.9942924704662 47.960641666446 19.0966657905003 0 0 0
215 2 2 0.0 93.7160587310718 49.1841909869459 19.09855305213 0 0 0
216 2 2 0.0 95.1366517088694 49.1676349462063 19.0966931636308 0 0 0
217 2 2 0.0 95.8579184291915 50.3915210828075 19.0987553287156 0 0 0
218 2 2 0.0 97.2784144812481 50.3754073748483 19.0970973199045 0 0 0
219 2 2 0.0 97.9992949675347 51.5995490298439 19.0993339530038 0 0 0
220 2 2 0.0 99.4196948266599 51.5837459972489 19.0979014500982 0 0 0
221 2 2 0.0 100.140304101596 52.8080605644372 19.1003227689371 0 0 0
222 2 2 0.0 101.560606753998 52.792444059295 19.0991490388758 0 0 0
223 2 2 0.0 102.281055913166 54.0168495554506 19.1017669245413 0 0 0
224 2 2 0.0 103.701261120415 54.0012917172888 19.1008924669721 0 0 0
225 2 2 0.0 104.421662482984 55.225703019906 19.1037232806792 0 0 0
226 2 2 0.0 105.84177213443 55.2100658677719 19.1031980786174 0 0 0
227 2 2 0.0 106.562241357041 56.434394433467 19.1062639484451 0 0 0
228 2 2 0.0 107.982259424263 56.418535518558 19.1061412796543 0 0 0
229 2 2 0.0 108.702915936006 57.6426898057649 19.1094668491968 0 0 0
230 2 2 0.0 110.122848380704 57.6264653143329 19.1098028556027 0 0 0
231 2 2 0.0 110.843815573311 58.8503511053338 19.1134209378598 0 0 0
232 2 2 0.0 112.26367013934 58.8336160609519 19.114276507029 0 0 0
233 2 2 0.0 112.985074491327 60.0571375552091 19.1182406310758 0 0 0
234 2 2 0.0 114.404860326329 60.0397451103823 19.1196852220323 0 0 0
235 2 2 0.0 115.126829576055 61.2628069222898 19.1240886912501 0 0 0
236 2 2 0.0 116.546556559876 61.2446083911254 19.1262064651193 0 0 0
237 2 2 0.0 117.269218673925 62.4671175775163 19.1312035564028 0 0 0
238 2 2 0.0 118.688896636111 62.4479648335168 19.134096585471 0 0 0
239 2 2 0.0 119.412381508757 63.6698318310287 19.1399103501251 0 0 0
240 2 2 0.0 120.832019593098 63.6495815886946 19.143700014396 0 0 0
241 2 2 0.0 121.556460038252 64.8707210796632 19.1506045253059 0 0 0
242 2 2 0.0 122.976066856954 64.8492403969795 19.1553999731203 0 0 0
243 2 2 0.0 123.701595530142 66.0695745710531 19.1636765372667 0 0 0
244 2 2 0.0 125.12117980227 66.0467500529903 19.1695157882204 0 0 0
245 2 2 0.0 125.847920506185 67.2662152949641 19.1793728429611 0 0 0
246 2 2 0.0 127.267491699853 67.2419699299631 19.1861331322997 0 0 0
247 2 2 0.0 127.995546243388 68.4605265427832 19.1975894145245 0 0 0
248 2 2 0.0 129.415115049542 68.4348491231498 19.204885243715 0 0 0
249 2 2 0.0 130.144547946828 69.652492620452 19.2176324222778 0 0 0
250 2 2 0.0 131.564126127225 69.6254828154534 19.2247399588213 0 0 0
251 2 2 0.0 132.294949600991 70.8422534721509 19.2380434679978 0 0 0
252 2 2 0.0 42.0910478235911 70.8141662307058 19.2439192605964 0 0 0
253 2 2 0.0 42.8232077723991 72.0301587087904 19.2566445220809 0 0 0
254 2 2 0.0 44.2428290598279 72.0013319665907 19.2600990897543 0 0 0
255 2 2 0.0 44.9761826807051 73.2166992971413 19.27094998088 0 0 0
256 2 2 0.0 46.3958095600279 73.1874436925894 19.2710120107299 0 0 0
257 2 2 0.0 47.1301012591067 74.4023885231557 19.278831564436 0 0 0
258 2 2 0.0 48.5496947480938 74.3730331557818 19.2749046609524 0 0 0
259 2 2 0.0 49.2845627980522 75.5878043255461 19.2788858810359 0 0 0
260 2 2 0.0 50.704070115048 75.558866424023 19.2709499813028 0 0 0
261 2 2 0.0 51.4392196530385 76.7736715635281 19.271012014997 0 0 0
262 2 2 0.0 52.8586081468967 76.7457902265567 19.2599208090762 0 0 0
263 2 2 0.0 53.5938658651441 77.9607590676304 19.2566636966295 0 0 0
264 2 2 0.0 55.0131349570386 77.9344219258483 19.2437419493755 0 0 0
265 2 2 0.0 55.7483347266612 79.1496604195323 19.2380434707242 0 0 0
266 2 2 0.0 57.1675007616939 79.1251340527557 19.224739960264 0 0 0
267 2 2 0.0 12.090625327867 0.992515618733257 19.2175836846096 0 0 0
268 2 2 0.0 13.5097100740532 0.969874071298612 19.2051427641424 0 0 0
269 2 2 0.0 14.243938445694 2.18613167307015 19.1974103857176 0 0 0
270 2 2 0.0 15.6629618693476 2.16531908315758 19.1866054096846 0 0 0
271 2 2 0.0 16.3962973550352 3.38230017658007 19.1789000675031 0 0 0
272 2 2 0.0 17.815286370812 3.3631843391109 19.1700374335569 0 0 0
273 2 2 0.0 18.5475785369612 4.58095543073964 19.1627029261443 0 0 0
274 2 2 0.0 19.9665645570708 4.56336700671198 19.1557506881132 0 0 0
275 2 2 0.0 20.6977478373677 5.78194335229782 19.1489564063986 0 0 0
276 2 2 0.0 22.1167617794326 5.76570602702576 19.1437093114932 0 0 0
277 2 2 0.0 22.8468426587716 6.98506092414119 19.1375231467109 0 0 0
278 2 2 0.0 24.265912570453 6.97000929812041 19.1337334528591 0 0 0
279 2 2 0.0 24.9949565795433 8.19008245883119 19.1281681338541 0 0 0
280 2 2 0.0 26.4141068564606 8.17606901783223 19.1256102065568 0 0 0
281 2 2 0.0 27.1422237159841 9.39677393423749 19.1206351410063 0 0 0
282 2 2 0.0 28.5614751218741 9.38366032064758 19.1191080758581 0 0 0
283 2 2 0.0 29.2888007811036 10.6048938175491 19.1146606926828 0 0 0
284 2 2 0.0 30.7081703645169 10.5925365161369 19.1139771654958 0 0 0
285 2 2 0.0 31.4348499921483 11.8141890616717 19.1099745762748 0 0 0
286 2 2 0.0 32.8543514691288 11.8024347829001 19.1099664706015 0 0 0
287 2 2 0.0 33.5805278075479 13.0243981445981 19.1063255456521 0 0 0
288 2 2 0.0 35.0001720549926 13.0130852736276 19.1068534384541 0 0 0
289 2 2 0.0 35.7259789799244 14.2352570143542 19.1035030997965 0 0 0
290 2 2 0.0 37.1457743387877 14.2242185112665 19.1044604578231 0 0 0
291 2 2 0.0 37.871334152655 15.4465040551062 19.1013436110641 0 0 0
292 2 2 0.0 39.2912864492674 15.4355698722139 19.1026518716855 0 0 0
293 2 2 0.0 40.016708913216 16.6578834031113 19.0997192027242 0 0 0
294 2 2 0.0 41.4368212293897 16.6468822020561 19.1013172147799 0 0 0
295 2 2 0.0 42.1622025905198 17.8691476044749 19.0985203335756 0 0 0
296 2 2 0.0 43.5824748344901 17.8579080170693 19.1003568843179 0 0 0
297 2 2 0.0 44.3078945905779 19.0800613629914 19.0976573806583 0 0 0
298 2 2 0.0 45.7283230406992 19.0684127491064 19.099697364719 0 0 0
299 2 2 0.0 46.453839572621 20.2904043939522 19.0970973202158 0 0 0
300 2 2 0.0 47.8744175866153 20.2781744081728 19.0993339542667 0 0 0
301 2 2 0.0 48.6000801735588 21.4999600408232 19.0968747338298 0 0 0
302 2 2 0.0 50.0207994957511 21.486981037909 19.0993099202442 0 0 0
303 2 2 0.0 50.7466657970793 22.7085146101393 19.0970393520069 0 0 0
304 2 2 0.0 52.1675180128374 22.6946371853778 19.0996569184038 0 0 0
305 2 2 0.0 52.8936516263819 23.9158753597155 19.0975956459443 0 0 0
306 2 2 0.0 54.3146350889514 23.9009930103657 19.1003530177396 0 0 0
307 2 2 0.0 55.04108455623 25.1219090705199 19.0985000004564 0 0 0
308 2 2 0.0 56.4622053929956 25.1059577543628 19.1013555851018 0 0 0
309 2 2 0.0 57.1889956889221 26.3265447972122 19.0997191966023 0 0 0
310 2 2 0.0 58.6102614920796 26.3094672800038 19.1026518675648 0 0 0
311 2 2 0.0 59.3373903880061 27.5297355393704 19.1012537912715 0 0 0
312 2 2 0.0 60.7588054445368 27.511485201689 19.1042237509424 0 0 0
313 2 2 0.0 61.4862264535408 28.7314726081341 19.1030680597503 0 0 0
314 2 2 0.0 62.9077864404874 28.7120389546103 19.1059803324528 0 0 0
315 2 2 0.0 63.6354113351429 29.9318099867328 19.1050275231141 0 0 0
316 2 2 0.0 65.0571022932358 29.9112384907941 19.1077216929435 0 0 0
317 2 2 0.0 65.7848340439324 31.1308645012134 19.1069104815999 0 0 0
318 2 2 0.0 67.206632580813 31.10926455139 19.1091964340552 0 0 0
319 2 2 0.0 67.9343787423912 32.3288146306823 19.1084861040455 0 0 0
320 2 2 0.0 69.356251513399 32.3063553624893 19.1101942663317 0 0 0
321 2 2 0.0 70.0839169547712 33.5259001441916 19.1095786058569 0 0 0
322 2 2 0.0 71.5058217619999 33.5028023335345 19.1105933199058 0 0 0
323 2 2 0.0 72.2333047534353 34.7224165428754 19.1100916541382 0 0 0
324 2 2 0.0 73.6551938029351 34.6989398414557 19.1103665964305 0 0 0
325 2 2 0.0 74.3823869794442 35.9187025833852 19.1100083234487 0 0 0
326 2 2 0.0 75.8042118960734 35.8951265663322 19.1095653839196 0 0 0
327 2 2 0.0 76.5310058836582 37.115120046101 19.1093772123212 0 0 0
328 2 2 0.0 77.9527233138886 37.0917213225711 19.108290700268 0 0 0
329 2 2 0.0 78.6790127523724 38.312027567639 19.108289308655 0 0 0
330 2 2 0.0 80.1005892100813 38.2890568484575 19.1066606456521 0 0 0
331 2 2 0.0 80.826280804267 39.5097521980123 19.1068514161852 0 0 0
332 2 2 0.0 82.2476959027807 39.4874157241382 19.1047877699898 0 0 0
333 2 2 0.0 82.9727175435917 40.7085637553455 19.1051741584835 0 0 0
334 2 2 0.0 84.3939652731188 40.6870139605701 19.102798556524 0 0 0
335 2 2 0.0 85.1182729288187 41.9086575858577 19.1034049670632 0 0 0
336 2 2 0.0 86.5393602583728 41.8879853842348 19.1008924639836 0 0 0
337 2 2 0.0 87.2629363407974 43.1101402534885 19.10176692592 0 0 0
338 2 2 0.0 88.6838772195053 43.0903523302021 19.0993038289478 0 0 0
339 2 2 0.0 89.4067196088372 44.3130131441635 19.1004793857922 0 0 0
340 2 2 0.0 90.8275287567361 44.2940518865107 19.0981953173778 0 0 0
341 2 2 0.0 91.549641515364 45.5172016285314 19.0996569265115 0 0 0
342 2 2 0.0 92.9703316042774 45.498970557217 19.097595654451 0 0 0
343 2 2 0.0 93.6917521657524 46.7225714734639 19.099287286945 0 0 0
344 2 2 0.0 95.1123348902448 46.7049470080863 19.0974358934315 0 0 0
345 2 2 0.0 95.8331441322186 47.9289374411113 19.09930894489 0 0 0
346 2 2 0.0 97.2536298039242 47.9117929895032 19.0976573792295 0 0 0
347 2 2 0.0 97.9739320222731 49.1360958051827 19.0996973630168 0 0 0
348 2 2 0.0 99.3943271204411 49.1193104056162 19.0982605506136 0 0 0
349 2 2 0.0 100.114240599037 50.3438405791737 19.1004791794477 0 0 0
350 2 2 0.0 101.5345458607 50.3272933481995 19.0992855907332 0 0 0
351 2 2 0.0 102.254190639251 51.5519645436012 19.1016985654936 0 0 0
352 2 2 0.0 103.674406406956 51.535533387398 19.1007788198137 0 0 0
353 2 2 0.0 104.393902133449 52.7602578886759 19.103404968436 0 0 0
354 2 2 0.0 105.814030374023 52.7438108741872 19.1027985598031 0 0 0
355 2 2 0.0 106.533498024073 53.9684990959471 19.1056622796801 0 0 0
356 2 2 0.0 107.953542631266 53.9518990298606 19.1054150427632 0 0 0
357 2 2 0.0 108.673105827036 55.1764593917644 19.1085413436081 0 0 0
358 2 2 0.0 110.093072620281 55.159568080395 19.1087015299889 0 0 0
359 2 2 0.0 110.812859000471 56.3839065490618 19.1121147136422 0 0 0
360 2 2 0.0 112.232755759181 56.3665851564552 19.1127309665569 0 0 0
361 2 2 0.0 112.952897240014 57.5906056343475 19.1164589709354 0 0 0
362 2 2 0.0 114.372733633793 57.5727134341766 19.1175790063082 0 0 0
363 2 2 0.0 115.093364826843 58.7963195451681 19.121665584847 0 0 0
364 2 2 0.0 116.513152029433 58.7777128426848 19.1233372825703 0 0 0
365 2 2 0.0 117.234406859215 60.0008111585401 19.1278639484226 0 0 0
366 2 2 0.0 118.654156818235 59.9813440821466 19.1301407775785 0 0 0
367 2 2 0.0 119.376165091572 61.2038478988702 19.1352533332174 0 0 0
368 2 2 0.0 120.795889461464 61.1833768198102 19.1381987300801 0 0 0
369 2 2 0.0 121.518778037541 62.4052076723773 19.1441220513489 0 0 0
370 2 2 0.0 122.938487458017 62.3835998713871 19.1477989489819 0 0 0
371 2 2 0.0 123.662386936861 63.6046857071493 19.154811049002 0 0 0
372 2 2 0.0 125.082091239215 63.5818298959693 19.1592501147912 0 0 0
373 2 2 0.0 125.80713549846 64.802106256751 19.1676199058288 0 0 0
374 2 2 0.0 127.226844449738 64.777926925011 19.1727533139419 0 0 0
375 2 2 0.0 127.953161343896 65.997343074605 19.182649199401 0 0 0
376 2 2 0.0 129.372884958986 65.9718260630385 19.1882336659601 0 0 0
377 2 2 0.0 130.100582396384 67.1903537648729 19.1996039505106 0 0 0
378 2 2 0.0 39.8968307114607 67.1635897218412 19.2051427568682 0 0 0
379 2 2 0.0 40.6259812413774 68.3812323888224 19.2175836796835 0 0 0
380 2 2 0.0 42.0457648667028 68.3534503208893 19.222288456943 0 0 0
381 2 2 0.0 42.7763873214715 69.5702576499539 19.2350058986288 0 0 0
382 2 2 0.0 44.1962074091174 69.5417352533013 19.237900761013 0 0 0
383 2 2 0.0 44.9282400579294 70.7578086953134 19.2498117138584 0 0 0
384 2 2 0.0 46.3480793635655 70.7287869901937 19.2499772246938 0 0 0
385 2 2 0.0 47.0813578587485 71.9442765324323 19.2599208053435 0 0 0
386 2 2 0.0 48.5011805983186 71.9150090885899 19.2566636890984 0 0 0
387 2 2 0.0 49.2354043767201 73.1301275345845 19.2636377225913 0 0 0
388 2 2 0.0 50.6551569555149 73.101065166569 19.2566445165795 0 0 0
389 2 2 0.0 51.3899322896521 74.3160798945844 19.2600990863267 0 0 0
390 2 2 0.0 52.8095605319085 74.2879015933401 19.2498117102019 0 0 0
391 2 2 0.0 53.5446137199395 75.5030076484722 19.2499772240997 0 0 0
392 2 2 0.0 54.9640971659775 75.4763084379356 19.2375398990641 0 0 0
393 2 2 0.0 55.6993086174145 76.6915852040758 19.2350958608952 0 0 0
394 2 2 0.0 57.1186552744931 76.6667234799154 19.221868684276 0 0 0
395 2 2 0.0 57.8538986730497 77.8822383830598 19.217632421812 0 0 0
396 2 2 0.0 59.2731253252649 77.8593527131308 19.2048852450811 0 0 0
397 2 2 0.0 60.0081562483725 79.0752325279393 19.1996039569677 0 0 0
398 2 2 0.0 61.4272809106664 79.0542919099866 19.1882336753068 0 0 0
399 2 2 0.0 16.3500235395704 0.922425536528633 19.1824733245733 0 0 0
400 2 2 0.0 17.7690628233241 0.903299636009234 19.1729081932071 0 0 0
401 2 2 0.0 18.5027557909102 2.12037273216886 19.1670363483878 0 0 0
402 2 2 0.0 19.921734866997 2.10288645276791 19.1593335583979 0 0 0
403 2 2 0.0 20.6544673204043 3.32068861221939 19.1535636189652 0 0 0
404 2 2 0.0 22.0734205234095 3.30465506563794 19.1475723903675 0 0 0
405 2 2 0.0 22.8051167636852 4.52320585909037 19.1420433308362 0 0 0
406 2 2 0.0 24.22408000407 4.50845178870037 19.1375486314751 0 0 0
407 2 2 0.0 24.9547414360807 5.72772772612296 19.1323615479275 0 0 0
408 2 2 0.0 26.3737483548507 5.71410483829368 19.1291629103711 0 0 0
409 2 2 0.0 27.1034396323448 6.93404552425839 19.1243807215282 0 0 0
410 2 2 0.0 28.5225201445107 6.92141485376221 19.1222937728896 0 0 0
411 2 2 0.0 29.2513500700187 8.14193233356805 19.117928972721 0 0 0
412 2 2 0.0 30.6705296381692 8.13014537228252 19.1167726966777 0 0 0
413 2 2 0.0 31.3986300172428 9.35113686620564 19.1127923908304 0 0 0
414 2 2 0.0 32.8179296457229 9.340032975366 19.1123937527462 0 0 0
415 2 2 0.0 33.5454392918494 10.5613912155269 19.1087422831321 0 0 0
416 2 2 0.0 34.9648760322799 10.5508010108799 19.1089514191108 0 0 0
417 2 2 0.0 35.6919304885052 11.7724211711972 19.1055718469392 0 0 0
418 2 2 0.0 37.1115179518973 11.7621705974164 19.1062720304822 0 0 0
419 2 2 0.0 37.838243880717 12.9839541438676 19.1031167894727 0 0 0
420 2 2 0.0 39.2579925269109 12.9738672665927 19.1042237509555 0 0 0
421 2 2 0.0 39.9845053085978 14.1957236455974 19.1012537941842 0 0 0
422 2 2 0.0 41.4044224714015 14.1856239323606 19.1027066497055 0 0 0
423 2 2 0.0 42.1308249915291 15.4074715004071 19.0998835962764 0 0 0
424 2 2 0.0 43.5509146226878 15.3971822419461 19.1016327800709 0 0 0
425 2 2 0.0 44.2772953808036 16.6189493044215 19.0989127653091 0 0 0
426 2 2 0.0 45.6975576023084 16.608293369176 19.1009133088557 0 0 0
427 2 2 0.0 46.4239840077598 17.8299218122878 19.0982605551693 0 0 0
428 2 2 0.0 47.8444149848704 17.8187235383574 19.1004791862032 0 0 0
429 2 2 0.0 48.5709316884606 19.0401705312853 19.0979014547804 0 0 0
430 2 2 0.0 49.9915238440351 19.0282618766904 19.1003227740537 0 0 0
431 2 2 0.0 50.7181714928987 20.2494907889757 19.0978665805662 0 0 0
432 2 2 0.0 52.1389148767488 20.2367181335168 19.1004793817577 0 0 0
433 2 2 0.0 52.8657403820339 21.4576943195202 19.0981953113179 0 0 0
434 2 2 0.0 54.2866244061042 21.4439278724467 19.1009709325813 0 0 0